<?xml version="1.0" encoding="UTF-8"?>

<!-- generated on 05/31/22 15:03:52 by Eclipse SUMO GUI Version 1.8.0
<configuration xmlns:xsi="http://www.w3.org/2001/XMLSchema-instance" xsi:noNamespaceSchemaLocation="http://sumo.dlr.de/xsd/sumoConfiguration.xsd">

    <input>
        <net-file value="./configurations/simple_grid1.net.xml"/>
        <route-files value="./configurations/str_sumo.rou.xml"/>
    </input>

    <output>
        <netstate-dump value="./configurations/test_dump.xml"/>
        <fcd-output value="./configurations/testTrace.xml"/>
        <tripinfo-output value="./configurations/trips.trips.xml"/>
    </output>

    <time>
        <begin value="0"/>
        <end value="200000"/>
    </time>

    <traci_server>
        <remote-port value="57106"/>
    </traci_server>

</configuration>
-->

<tripinfos xmlns:xsi="http://www.w3.org/2001/XMLSchema-instance" xsi:noNamespaceSchemaLocation="http://sumo.dlr.de/xsd/tripinfo_file.xsd">
    <tripinfo id="2" depart="1.00" departLane="gneE18_0" departPos="5.10" departSpeed="0.00" departDelay="0.00" arrival="7.00" arrivalLane="gneE18_0" arrivalPos="45.54" arrivalSpeed="12.89" duration="6.00" routeLength="40.44" waitingTime="0.00" waitingCount="0" stopTime="0.00" timeLoss="2.96" rerouteNo="0" devices="tripinfo_2 fcd_2" vType="DEFAULT_VEHTYPE" speedFactor="1.08" vaporized=""/>
    <tripinfo id="13" depart="7.00" departLane="-gneE12_0" departPos="5.10" departSpeed="0.00" departDelay="0.50" arrival="12.00" arrivalLane="-gneE12_0" arrivalPos="27.94" arrivalSpeed="9.45" duration="5.00" routeLength="22.84" waitingTime="0.00" waitingCount="0" stopTime="0.00" timeLoss="2.88" rerouteNo="0" devices="tripinfo_13 fcd_13" vType="DEFAULT_VEHTYPE" speedFactor="0.93" vaporized=""/>
    <tripinfo id="14" depart="7.00" departLane="gneE23_0" departPos="5.10" departSpeed="0.00" departDelay="0.00" arrival="16.00" arrivalLane="gneE14_0" arrivalPos="20.71" arrivalSpeed="12.06" duration="9.00" routeLength="74.77" waitingTime="0.00" waitingCount="0" stopTime="0.00" timeLoss="2.32" rerouteNo="0" devices="tripinfo_14 fcd_14" vType="DEFAULT_VEHTYPE" speedFactor="0.88" vaporized=""/>
    <tripinfo id="34" depart="17.00" departLane="-gneE22_0" departPos="5.10" departSpeed="0.00" departDelay="0.00" arrival="23.00" arrivalLane="-gneE22_0" arrivalPos="41.14" arrivalSpeed="12.93" duration="6.00" routeLength="36.04" waitingTime="0.00" waitingCount="0" stopTime="0.00" timeLoss="2.98" rerouteNo="0" devices="tripinfo_34 fcd_34" vType="DEFAULT_VEHTYPE" speedFactor="1.10" vaporized=""/>
    <tripinfo id="103" depart="15.00" departLane="gneE20_0" departPos="5.10" departSpeed="0.00" departDelay="0.00" arrival="26.00" arrivalLane="gneE20_0" arrivalPos="108.29" arrivalSpeed="12.67" duration="11.00" routeLength="103.19" waitingTime="0.00" waitingCount="0" stopTime="0.00" timeLoss="3.22" rerouteNo="0" devices="tripinfo_103 fcd_103" vType="DEFAULT_VEHTYPE" speedFactor="0.99" vaporized=""/>
    <tripinfo id="10" depart="8.00" departLane="gneE22_0" departPos="5.10" departSpeed="0.00" departDelay="3.00" arrival="29.00" arrivalLane="gneE18_0" arrivalPos="45.54" arrivalSpeed="8.90" duration="21.00" routeLength="224.13" waitingTime="0.00" waitingCount="0" stopTime="0.00" timeLoss="5.02" rerouteNo="0" devices="tripinfo_10 fcd_10" vType="DEFAULT_VEHTYPE" speedFactor="1.03" vaporized=""/>
    <tripinfo id="1" depart="1.00" departLane="-gneE20_0" departPos="5.10" departSpeed="0.00" departDelay="0.50" arrival="30.00" arrivalLane="-gneE18_0" arrivalPos="45.54" arrivalSpeed="13.62" duration="29.00" routeLength="295.55" waitingTime="0.00" waitingCount="0" stopTime="0.00" timeLoss="7.10" rerouteNo="0" devices="tripinfo_1 fcd_1" vType="DEFAULT_VEHTYPE" speedFactor="1.01" vaporized=""/>
    <tripinfo id="39" depart="20.00" departLane="-gneE19_0" departPos="5.10" departSpeed="0.00" departDelay="0.50" arrival="33.00" arrivalLane="-gneE19_0" arrivalPos="130.57" arrivalSpeed="13.41" duration="13.00" routeLength="125.47" waitingTime="0.00" waitingCount="0" stopTime="0.00" timeLoss="3.59" rerouteNo="0" devices="tripinfo_39 fcd_39" vType="DEFAULT_VEHTYPE" speedFactor="1.04" vaporized=""/>
    <tripinfo id="21" depart="11.00" departLane="-gneE18_0" departPos="5.10" departSpeed="0.00" departDelay="0.50" arrival="35.00" arrivalLane="-gneE22_0" arrivalPos="41.14" arrivalSpeed="10.68" duration="24.00" routeLength="223.93" waitingTime="0.00" waitingCount="0" stopTime="0.00" timeLoss="4.00" rerouteNo="0" devices="tripinfo_21 fcd_21" vType="DEFAULT_VEHTYPE" speedFactor="0.83" vaporized=""/>
    <tripinfo id="12" depart="6.00" departLane="gneE28_0" departPos="5.10" departSpeed="0.00" departDelay="0.00" arrival="41.00" arrivalLane="-gneE25_0" arrivalPos="70.98" arrivalSpeed="12.81" duration="35.00" routeLength="350.08" waitingTime="0.00" waitingCount="0" stopTime="0.00" timeLoss="8.01" rerouteNo="0" devices="tripinfo_12 fcd_12" vType="DEFAULT_VEHTYPE" speedFactor="0.99" vaporized=""/>
    <tripinfo id="101" depart="5.00" departLane="gneE12_0" departPos="5.10" departSpeed="0.00" departDelay="0.00" arrival="45.00" arrivalLane="gneE20_0" arrivalPos="108.29" arrivalSpeed="13.97" duration="40.00" routeLength="430.04" waitingTime="0.00" waitingCount="0" stopTime="0.00" timeLoss="9.30" rerouteNo="4" devices="tripinfo_101 fcd_101" vType="DEFAULT_VEHTYPE" speedFactor="1.05" vaporized=""/>
    <tripinfo id="30" depart="15.00" departLane="gneE9_0" departPos="5.10" departSpeed="0.00" departDelay="0.00" arrival="50.00" arrivalLane="gneE15_0" arrivalPos="83.62" arrivalSpeed="15.03" duration="35.00" routeLength="393.77" waitingTime="0.00" waitingCount="0" stopTime="0.00" timeLoss="10.26" rerouteNo="0" devices="tripinfo_30 fcd_30" vType="DEFAULT_VEHTYPE" speedFactor="1.17" vaporized=""/>
    <tripinfo id="79" depart="40.00" departLane="-gneE18_0" departPos="5.10" departSpeed="0.00" departDelay="0.50" arrival="51.00" arrivalLane="-gneE18_0" arrivalPos="45.54" arrivalSpeed="4.91" duration="11.00" routeLength="40.44" waitingTime="0.00" waitingCount="0" stopTime="0.00" timeLoss="8.14" rerouteNo="0" devices="tripinfo_79 fcd_79" vType="DEFAULT_VEHTYPE" speedFactor="1.04" vaporized=""/>
    <tripinfo id="9" depart="5.00" departLane="gneE22_0" departPos="5.10" departSpeed="0.00" departDelay="0.50" arrival="54.00" arrivalLane="-gneE10_0" arrivalPos="40.02" arrivalSpeed="14.26" duration="49.00" routeLength="262.95" waitingTime="20.00" waitingCount="1" stopTime="0.00" timeLoss="30.24" rerouteNo="0" devices="tripinfo_9 fcd_9" vType="DEFAULT_VEHTYPE" speedFactor="1.09" vaporized=""/>
    <tripinfo id="44" depart="22.00" departLane="-gneE12_0" departPos="5.10" departSpeed="0.00" departDelay="0.00" arrival="59.00" arrivalLane="-gneE11_0" arrivalPos="159.77" arrivalSpeed="9.67" duration="37.00" routeLength="190.72" waitingTime="9.00" waitingCount="1" stopTime="0.00" timeLoss="19.70" rerouteNo="0" devices="tripinfo_44 fcd_44" vType="DEFAULT_VEHTYPE" speedFactor="0.85" vaporized=""/>
    <tripinfo id="4" depart="2.00" departLane="-gneE26_0" departPos="5.10" departSpeed="0.00" departDelay="0.00" arrival="60.00" arrivalLane="-gneE10_0" arrivalPos="40.02" arrivalSpeed="10.81" duration="58.00" routeLength="370.27" waitingTime="13.00" waitingCount="1" stopTime="0.00" timeLoss="23.84" rerouteNo="0" devices="tripinfo_4 fcd_4" vType="DEFAULT_VEHTYPE" speedFactor="0.83" vaporized=""/>
    <tripinfo id="27" depart="15.00" departLane="gneE13_0" departPos="5.10" departSpeed="0.00" departDelay="1.50" arrival="60.00" arrivalLane="gneE14_0" arrivalPos="20.71" arrivalSpeed="9.33" duration="45.00" routeLength="187.00" waitingTime="19.00" waitingCount="1" stopTime="0.00" timeLoss="32.57" rerouteNo="0" devices="tripinfo_27 fcd_27" vType="DEFAULT_VEHTYPE" speedFactor="1.18" vaporized=""/>
    <tripinfo id="8" depart="6.00" departLane="-gneE18_0" departPos="5.10" departSpeed="0.00" departDelay="2.00" arrival="61.00" arrivalLane="gneE13_0" arrivalPos="162.05" arrivalSpeed="10.26" duration="55.00" routeLength="298.46" waitingTime="13.00" waitingCount="1" stopTime="0.00" timeLoss="28.31" rerouteNo="0" devices="tripinfo_8 fcd_8" vType="DEFAULT_VEHTYPE" speedFactor="0.86" vaporized=""/>
    <tripinfo id="81" depart="43.00" departLane="-gneE18_0" departPos="5.10" departSpeed="0.00" departDelay="2.50" arrival="62.00" arrivalLane="gneE27_0" arrivalPos="77.59" arrivalSpeed="12.91" duration="19.00" routeLength="129.04" waitingTime="0.00" waitingCount="0" stopTime="0.00" timeLoss="8.73" rerouteNo="0" devices="tripinfo_81 fcd_81" vType="DEFAULT_VEHTYPE" speedFactor="1.02" vaporized=""/>
    <tripinfo id="31" depart="16.00" departLane="gneE10_0" departPos="5.10" departSpeed="0.00" departDelay="0.50" arrival="66.00" arrivalLane="gneE18_0" arrivalPos="45.54" arrivalSpeed="13.91" duration="50.00" routeLength="363.33" waitingTime="5.00" waitingCount="1" stopTime="0.00" timeLoss="22.65" rerouteNo="0" devices="tripinfo_31 fcd_31" vType="DEFAULT_VEHTYPE" speedFactor="1.02" vaporized=""/>
    <tripinfo id="18" depart="17.00" departLane="gneE22_0" departPos="5.10" departSpeed="0.00" departDelay="8.00" arrival="67.00" arrivalLane="gneE14_0" arrivalPos="20.71" arrivalSpeed="11.39" duration="50.00" routeLength="282.54" waitingTime="13.00" waitingCount="1" stopTime="0.00" timeLoss="28.34" rerouteNo="0" devices="tripinfo_18 fcd_18" vType="DEFAULT_VEHTYPE" speedFactor="1.02" vaporized=""/>
    <tripinfo id="55" depart="30.00" departLane="gneE25_0" departPos="5.10" departSpeed="0.00" departDelay="2.50" arrival="71.00" arrivalLane="-gneE19_0" arrivalPos="130.57" arrivalSpeed="6.05" duration="41.00" routeLength="206.12" waitingTime="9.00" waitingCount="1" stopTime="0.00" timeLoss="27.03" rerouteNo="0" devices="tripinfo_55 fcd_55" vType="DEFAULT_VEHTYPE" speedFactor="1.12" vaporized=""/>
    <tripinfo id="41" depart="22.00" departLane="gneE11_0" departPos="5.10" departSpeed="0.00" departDelay="1.50" arrival="72.00" arrivalLane="gneE26_0" arrivalPos="97.15" arrivalSpeed="13.82" duration="50.00" routeLength="315.47" waitingTime="13.00" waitingCount="1" stopTime="0.00" timeLoss="25.69" rerouteNo="0" devices="tripinfo_41 fcd_41" vType="DEFAULT_VEHTYPE" speedFactor="1.00" vaporized=""/>
    <tripinfo id="40" depart="20.00" departLane="gneE10_0" departPos="5.10" departSpeed="0.00" departDelay="0.00" arrival="73.00" arrivalLane="-gneE19_0" arrivalPos="130.57" arrivalSpeed="8.20" duration="53.00" routeLength="355.35" waitingTime="9.00" waitingCount="1" stopTime="0.00" timeLoss="28.01" rerouteNo="0" devices="tripinfo_40 fcd_40" vType="DEFAULT_VEHTYPE" speedFactor="1.04" vaporized=""/>
    <tripinfo id="90" depart="45.00" departLane="gneE15_0" departPos="5.10" departSpeed="0.00" departDelay="0.00" arrival="78.00" arrivalLane="gneE18_0" arrivalPos="45.54" arrivalSpeed="15.24" duration="33.00" routeLength="219.26" waitingTime="0.00" waitingCount="0" stopTime="0.00" timeLoss="17.72" rerouteNo="0" devices="tripinfo_90 fcd_90" vType="DEFAULT_VEHTYPE" speedFactor="1.10" vaporized=""/>
    <tripinfo id="37" depart="21.00" departLane="gneE13_0" departPos="5.10" departSpeed="0.00" departDelay="2.50" arrival="80.00" arrivalLane="-gneE27_0" arrivalPos="77.59" arrivalSpeed="12.76" duration="59.00" routeLength="360.11" waitingTime="15.00" waitingCount="1" stopTime="0.00" timeLoss="29.66" rerouteNo="0" devices="tripinfo_37 fcd_37" vType="DEFAULT_VEHTYPE" speedFactor="0.96" vaporized=""/>
    <tripinfo id="15" depart="11.00" departLane="gneE22_0" departPos="5.10" departSpeed="0.00" departDelay="3.50" arrival="96.00" arrivalLane="gneE19_0" arrivalPos="130.57" arrivalSpeed="6.91" duration="85.00" routeLength="361.49" waitingTime="45.00" waitingCount="1" stopTime="0.00" timeLoss="56.53" rerouteNo="0" devices="tripinfo_15 fcd_15" vType="DEFAULT_VEHTYPE" speedFactor="0.94" vaporized=""/>
    <tripinfo id="23" depart="13.00" departLane="-gneE13_0" departPos="5.10" departSpeed="0.00" departDelay="1.50" arrival="99.00" arrivalLane="-gneE22_0" arrivalPos="41.14" arrivalSpeed="12.05" duration="86.00" routeLength="248.09" waitingTime="53.00" waitingCount="2" stopTime="0.00" timeLoss="65.86" rerouteNo="0" devices="tripinfo_23 fcd_23" vType="DEFAULT_VEHTYPE" speedFactor="0.92" vaporized=""/>
    <tripinfo id="0" depart="0.00" departLane="gneE13_0" departPos="5.10" departSpeed="0.00" departDelay="0.00" arrival="101.00" arrivalLane="-gneE10_0" arrivalPos="40.02" arrivalSpeed="14.30" duration="101.00" routeLength="271.07" waitingTime="68.00" waitingCount="2" stopTime="0.00" timeLoss="82.02" rerouteNo="0" devices="tripinfo_0 fcd_0" vType="DEFAULT_VEHTYPE" speedFactor="1.06" vaporized=""/>
    <tripinfo id="80" depart="40.00" departLane="-gneE12_0" departPos="5.10" departSpeed="0.00" departDelay="0.00" arrival="107.00" arrivalLane="gneE14_0" arrivalPos="20.71" arrivalSpeed="12.57" duration="67.00" routeLength="279.63" waitingTime="26.00" waitingCount="2" stopTime="0.00" timeLoss="45.27" rerouteNo="0" devices="tripinfo_80 fcd_80" vType="DEFAULT_VEHTYPE" speedFactor="1.01" vaporized=""/>
    <tripinfo id="47" depart="24.00" departLane="-gneE11_0" departPos="5.10" departSpeed="0.00" departDelay="0.50" arrival="118.00" arrivalLane="-gneE27_0" arrivalPos="77.59" arrivalSpeed="13.91" duration="94.00" routeLength="416.69" waitingTime="41.00" waitingCount="2" stopTime="0.00" timeLoss="62.83" rerouteNo="0" devices="tripinfo_47 fcd_47" vType="DEFAULT_VEHTYPE" speedFactor="1.02" vaporized=""/>
    <tripinfo id="67" depart="34.00" departLane="-gneE12_0" departPos="5.10" departSpeed="0.00" departDelay="0.50" arrival="120.00" arrivalLane="gneE10_0" arrivalPos="40.02" arrivalSpeed="12.63" duration="86.00" routeLength="296.98" waitingTime="41.00" waitingCount="2" stopTime="0.00" timeLoss="61.53" rerouteNo="0" devices="tripinfo_67 fcd_67" vType="DEFAULT_VEHTYPE" speedFactor="0.96" vaporized=""/>
    <tripinfo id="16" depart="8.00" departLane="gneE10_0" departPos="5.10" departSpeed="0.00" departDelay="0.00" arrival="121.00" arrivalLane="gneE9_0" arrivalPos="168.72" arrivalSpeed="6.83" duration="113.00" routeLength="430.79" waitingTime="52.00" waitingCount="2" stopTime="0.00" timeLoss="78.01" rerouteNo="0" devices="tripinfo_16 fcd_16" vType="DEFAULT_VEHTYPE" speedFactor="0.94" vaporized=""/>
    <tripinfo id="52" depart="26.00" departLane="-gneE20_0" departPos="5.10" departSpeed="0.00" departDelay="0.00" arrival="127.00" arrivalLane="gneE15_0" arrivalPos="83.62" arrivalSpeed="13.68" duration="101.00" routeLength="281.86" waitingTime="66.00" waitingCount="2" stopTime="0.00" timeLoss="79.50" rerouteNo="0" devices="tripinfo_52 fcd_52" vType="DEFAULT_VEHTYPE" speedFactor="1.02" vaporized=""/>
    <tripinfo id="3" depart="2.00" departLane="gneE25_0" departPos="5.10" departSpeed="0.00" departDelay="0.50" arrival="129.00" arrivalLane="-gneE12_0" arrivalPos="27.94" arrivalSpeed="13.12" duration="127.00" routeLength="383.52" waitingTime="70.00" waitingCount="2" stopTime="0.00" timeLoss="99.14" rerouteNo="0" devices="tripinfo_3 fcd_3" vType="DEFAULT_VEHTYPE" speedFactor="1.03" vaporized=""/>
    <tripinfo id="75" depart="38.00" departLane="gneE9_0" departPos="5.10" departSpeed="0.00" departDelay="0.50" arrival="131.00" arrivalLane="gneE15_0" arrivalPos="83.62" arrivalSpeed="13.09" duration="93.00" routeLength="393.77" waitingTime="46.00" waitingCount="1" stopTime="0.00" timeLoss="62.40" rerouteNo="0" devices="tripinfo_75 fcd_75" vType="DEFAULT_VEHTYPE" speedFactor="0.97" vaporized=""/>
    <tripinfo id="89" depart="45.00" departLane="-gneE26_0" departPos="5.10" departSpeed="0.00" departDelay="0.50" arrival="132.00" arrivalLane="gneE10_0" arrivalPos="40.02" arrivalSpeed="13.25" duration="87.00" routeLength="317.66" waitingTime="36.00" waitingCount="2" stopTime="0.00" timeLoss="66.26" rerouteNo="0" devices="tripinfo_89 fcd_89" vType="DEFAULT_VEHTYPE" speedFactor="1.12" vaporized=""/>
    <tripinfo id="58" depart="29.00" departLane="-gneE20_0" departPos="5.10" departSpeed="0.00" departDelay="0.00" arrival="133.00" arrivalLane="gneE15_0" arrivalPos="83.62" arrivalSpeed="12.44" duration="104.00" routeLength="281.86" waitingTime="62.00" waitingCount="3" stopTime="0.00" timeLoss="80.28" rerouteNo="0" devices="tripinfo_58 fcd_58" vType="DEFAULT_VEHTYPE" speedFactor="0.94" vaporized=""/>
    <tripinfo id="19" depart="10.00" departLane="gneE23_0" departPos="5.10" departSpeed="0.00" departDelay="0.50" arrival="144.00" arrivalLane="gneE13_0" arrivalPos="162.05" arrivalSpeed="6.07" duration="134.00" routeLength="500.00" waitingTime="71.00" waitingCount="3" stopTime="0.00" timeLoss="96.65" rerouteNo="0" devices="tripinfo_19 fcd_19" vType="DEFAULT_VEHTYPE" speedFactor="1.01" vaporized=""/>
    <tripinfo id="106" depart="30.00" departLane="-gneE23_0" departPos="5.10" departSpeed="0.00" departDelay="0.00" arrival="144.00" arrivalLane="gneE19_0" arrivalPos="130.57" arrivalSpeed="12.29" duration="114.00" routeLength="540.33" waitingTime="43.00" waitingCount="2" stopTime="0.00" timeLoss="69.44" rerouteNo="5" devices="tripinfo_106 fcd_106" vType="DEFAULT_VEHTYPE" speedFactor="0.91" vaporized=""/>
    <tripinfo id="17" depart="9.00" departLane="-gneE25_0" departPos="5.10" departSpeed="0.00" departDelay="0.50" arrival="147.00" arrivalLane="gneE12_0" arrivalPos="27.94" arrivalSpeed="13.05" duration="138.00" routeLength="375.87" waitingTime="87.00" waitingCount="2" stopTime="0.00" timeLoss="112.70" rerouteNo="0" devices="tripinfo_17 fcd_17" vType="DEFAULT_VEHTYPE" speedFactor="1.16" vaporized=""/>
    <tripinfo id="102" depart="12.00" departLane="gneE28_0" departPos="5.10" departSpeed="0.00" departDelay="2.00" arrival="147.00" arrivalLane="-gneE27_0" arrivalPos="77.59" arrivalSpeed="6.92" duration="135.00" routeLength="528.63" waitingTime="59.00" waitingCount="4" stopTime="0.00" timeLoss="90.24" rerouteNo="5" devices="tripinfo_102 fcd_102" vType="DEFAULT_VEHTYPE" speedFactor="0.89" vaporized=""/>
    <tripinfo id="43" depart="23.00" departLane="gneE9_0" departPos="5.10" departSpeed="0.00" departDelay="1.50" arrival="149.00" arrivalLane="gneE11_0" arrivalPos="159.77" arrivalSpeed="9.50" duration="126.00" routeLength="374.98" waitingTime="75.00" waitingCount="2" stopTime="0.00" timeLoss="93.70" rerouteNo="0" devices="tripinfo_43 fcd_43" vType="DEFAULT_VEHTYPE" speedFactor="0.88" vaporized=""/>
    <tripinfo id="20" depart="10.00" departLane="gneE15_0" departPos="5.10" departSpeed="0.00" departDelay="0.00" arrival="150.00" arrivalLane="-gneE11_0" arrivalPos="159.77" arrivalSpeed="7.54" duration="140.00" routeLength="449.99" waitingTime="79.00" waitingCount="3" stopTime="0.00" timeLoss="105.32" rerouteNo="0" devices="tripinfo_20 fcd_20" vType="DEFAULT_VEHTYPE" speedFactor="0.98" vaporized=""/>
    <tripinfo id="48" depart="26.00" departLane="gneE9_0" departPos="5.10" departSpeed="0.00" departDelay="2.00" arrival="151.00" arrivalLane="gneE11_0" arrivalPos="159.77" arrivalSpeed="10.16" duration="125.00" routeLength="374.98" waitingTime="73.00" waitingCount="2" stopTime="0.00" timeLoss="99.13" rerouteNo="0" devices="tripinfo_48 fcd_48" vType="DEFAULT_VEHTYPE" speedFactor="1.10" vaporized=""/>
    <tripinfo id="49" depart="29.00" departLane="gneE9_0" departPos="5.10" departSpeed="0.00" departDelay="4.50" arrival="151.00" arrivalLane="gneE25_0" arrivalPos="70.98" arrivalSpeed="8.64" duration="122.00" routeLength="386.29" waitingTime="69.00" waitingCount="2" stopTime="0.00" timeLoss="93.70" rerouteNo="0" devices="tripinfo_49 fcd_49" vType="DEFAULT_VEHTYPE" speedFactor="1.00" vaporized=""/>
    <tripinfo id="88" depart="44.00" departLane="-gneE12_0" departPos="5.10" departSpeed="0.00" departDelay="0.00" arrival="151.00" arrivalLane="-gneE28_0" arrivalPos="71.89" arrivalSpeed="11.32" duration="107.00" routeLength="533.76" waitingTime="38.00" waitingCount="3" stopTime="0.00" timeLoss="61.60" rerouteNo="0" devices="tripinfo_88 fcd_88" vType="DEFAULT_VEHTYPE" speedFactor="0.91" vaporized=""/>
    <tripinfo id="71" depart="37.00" departLane="-gneE19_0" departPos="5.10" departSpeed="0.00" departDelay="1.50" arrival="152.00" arrivalLane="gneE26_0" arrivalPos="97.15" arrivalSpeed="14.45" duration="115.00" routeLength="468.34" waitingTime="57.00" waitingCount="2" stopTime="0.00" timeLoss="83.00" rerouteNo="0" devices="tripinfo_71 fcd_71" vType="DEFAULT_VEHTYPE" speedFactor="1.09" vaporized=""/>
    <tripinfo id="109" depart="48.00" departLane="-gneE25_0" departPos="5.10" departSpeed="0.00" departDelay="3.00" arrival="153.00" arrivalLane="-gneE27_0" arrivalPos="77.59" arrivalSpeed="13.87" duration="105.00" routeLength="244.43" waitingTime="61.00" waitingCount="3" stopTime="0.00" timeLoss="87.37" rerouteNo="2" devices="tripinfo_109 fcd_109" vType="DEFAULT_VEHTYPE" speedFactor="1.07" vaporized=""/>
    <tripinfo id="99" depart="55.00" departLane="gneE9_0" departPos="5.10" departSpeed="0.00" departDelay="5.50" arrival="153.00" arrivalLane="gneE25_0" arrivalPos="70.98" arrivalSpeed="9.47" duration="98.00" routeLength="386.29" waitingTime="42.00" waitingCount="2" stopTime="0.00" timeLoss="68.46" rerouteNo="0" devices="tripinfo_99 fcd_99" vType="DEFAULT_VEHTYPE" speedFactor="0.96" vaporized=""/>
    <tripinfo id="107" depart="36.00" departLane="gneE12_0" departPos="5.10" departSpeed="0.00" departDelay="1.00" arrival="154.00" arrivalLane="-gneE19_0" arrivalPos="130.57" arrivalSpeed="12.99" duration="118.00" routeLength="455.63" waitingTime="56.00" waitingCount="2" stopTime="0.00" timeLoss="83.17" rerouteNo="4" devices="tripinfo_107 fcd_107" vType="DEFAULT_VEHTYPE" speedFactor="1.01" vaporized=""/>
    <tripinfo id="82" depart="41.00" departLane="gneE23_0" departPos="5.10" departSpeed="0.00" departDelay="0.00" arrival="156.00" arrivalLane="-gneE12_0" arrivalPos="27.94" arrivalSpeed="11.17" duration="115.00" routeLength="248.06" waitingTime="74.00" waitingCount="1" stopTime="0.00" timeLoss="93.07" rerouteNo="0" devices="tripinfo_82 fcd_82" vType="DEFAULT_VEHTYPE" speedFactor="0.89" vaporized=""/>
    <tripinfo id="96" depart="48.00" departLane="-gneE19_0" departPos="5.10" departSpeed="0.00" departDelay="0.00" arrival="157.00" arrivalLane="gneE27_0" arrivalPos="77.59" arrivalSpeed="5.37" duration="109.00" routeLength="261.87" waitingTime="68.00" waitingCount="2" stopTime="0.00" timeLoss="89.26" rerouteNo="0" devices="tripinfo_96 fcd_96" vType="DEFAULT_VEHTYPE" speedFactor="1.01" vaporized=""/>
    <tripinfo id="93" depart="47.00" departLane="gneE23_0" departPos="5.10" departSpeed="0.00" departDelay="0.50" arrival="158.00" arrivalLane="-gneE19_0" arrivalPos="130.57" arrivalSpeed="12.48" duration="111.00" routeLength="300.75" waitingTime="70.00" waitingCount="2" stopTime="0.00" timeLoss="86.59" rerouteNo="0" devices="tripinfo_93 fcd_93" vType="DEFAULT_VEHTYPE" speedFactor="0.95" vaporized=""/>
    <tripinfo id="68" depart="37.00" departLane="-gneE12_0" departPos="5.10" departSpeed="0.00" departDelay="3.00" arrival="160.00" arrivalLane="gneE20_0" arrivalPos="108.29" arrivalSpeed="12.86" duration="123.00" routeLength="487.86" waitingTime="60.00" waitingCount="3" stopTime="0.00" timeLoss="85.43" rerouteNo="0" devices="tripinfo_68 fcd_68" vType="DEFAULT_VEHTYPE" speedFactor="0.98" vaporized=""/>
    <tripinfo id="91" depart="46.00" departLane="gneE9_0" departPos="5.10" departSpeed="0.00" departDelay="0.50" arrival="164.00" arrivalLane="-gneE12_0" arrivalPos="27.94" arrivalSpeed="13.21" duration="118.00" routeLength="473.84" waitingTime="53.00" waitingCount="2" stopTime="0.00" timeLoss="79.48" rerouteNo="0" devices="tripinfo_91 fcd_91" vType="DEFAULT_VEHTYPE" speedFactor="0.96" vaporized=""/>
    <tripinfo id="22" depart="11.00" departLane="-gneE12_0" departPos="5.10" departSpeed="0.00" departDelay="0.00" arrival="168.00" arrivalLane="-gneE18_0" arrivalPos="45.54" arrivalSpeed="11.89" duration="157.00" routeLength="553.41" waitingTime="83.00" waitingCount="3" stopTime="0.00" timeLoss="108.38" rerouteNo="0" devices="tripinfo_22 fcd_22" vType="DEFAULT_VEHTYPE" speedFactor="0.87" vaporized=""/>
    <tripinfo id="100" depart="0.00" departLane="-gneE23_0" departPos="5.10" departSpeed="0.00" departDelay="0.00" arrival="173.00" arrivalLane="-gneE28_0" arrivalPos="71.89" arrivalSpeed="12.64" duration="173.00" routeLength="715.51" waitingTime="87.00" waitingCount="3" stopTime="0.00" timeLoss="112.88" rerouteNo="7" devices="tripinfo_100 fcd_100" vType="DEFAULT_VEHTYPE" speedFactor="0.94" vaporized=""/>
    <tripinfo id="72" depart="36.00" departLane="-gneE26_0" departPos="5.10" departSpeed="0.00" departDelay="0.00" arrival="174.00" arrivalLane="-gneE18_0" arrivalPos="45.54" arrivalSpeed="13.88" duration="138.00" routeLength="685.89" waitingTime="52.00" waitingCount="3" stopTime="0.00" timeLoss="88.85" rerouteNo="0" devices="tripinfo_72 fcd_72" vType="DEFAULT_VEHTYPE" speedFactor="1.03" vaporized=""/>
    <tripinfo id="98" depart="50.00" departLane="gneE10_0" departPos="5.10" departSpeed="0.00" departDelay="1.00" arrival="175.00" arrivalLane="-gneE11_0" arrivalPos="159.77" arrivalSpeed="13.90" duration="125.00" routeLength="470.54" waitingTime="64.00" waitingCount="2" stopTime="0.00" timeLoss="91.08" rerouteNo="0" devices="tripinfo_98 fcd_98" vType="DEFAULT_VEHTYPE" speedFactor="1.06" vaporized=""/>
    <tripinfo id="65" depart="33.00" departLane="-gneE22_0" departPos="5.10" departSpeed="0.00" departDelay="0.50" arrival="183.00" arrivalLane="-gneE11_0" arrivalPos="159.77" arrivalSpeed="11.80" duration="150.00" routeLength="691.91" waitingTime="56.00" waitingCount="3" stopTime="0.00" timeLoss="94.18" rerouteNo="0" devices="tripinfo_65 fcd_65" vType="DEFAULT_VEHTYPE" speedFactor="0.94" vaporized=""/>
    <tripinfo id="50" depart="25.00" departLane="-gneE10_0" departPos="5.10" departSpeed="0.00" departDelay="0.00" arrival="189.00" arrivalLane="gneE19_0" arrivalPos="130.57" arrivalSpeed="5.46" duration="164.00" routeLength="592.49" waitingTime="86.00" waitingCount="4" stopTime="0.00" timeLoss="118.81" rerouteNo="0" devices="tripinfo_50 fcd_50" vType="DEFAULT_VEHTYPE" speedFactor="1.00" vaporized=""/>
    <tripinfo id="73" depart="37.00" departLane="gneE10_0" departPos="5.10" departSpeed="0.00" departDelay="0.50" arrival="191.00" arrivalLane="gneE19_0" arrivalPos="130.57" arrivalSpeed="7.40" duration="154.00" routeLength="500.69" waitingTime="87.00" waitingCount="3" stopTime="0.00" timeLoss="115.33" rerouteNo="0" devices="tripinfo_73 fcd_73" vType="DEFAULT_VEHTYPE" speedFactor="1.00" vaporized=""/>
    <tripinfo id="7" depart="4.00" departLane="gneE13_0" departPos="5.10" departSpeed="0.00" departDelay="0.50" arrival="192.00" arrivalLane="gneE12_0" arrivalPos="27.94" arrivalSpeed="6.10" duration="188.00" routeLength="430.95" waitingTime="120.00" waitingCount="5" stopTime="0.00" timeLoss="152.22" rerouteNo="0" devices="tripinfo_7 fcd_7" vType="DEFAULT_VEHTYPE" speedFactor="0.94" vaporized=""/>
    <tripinfo id="26" depart="13.00" departLane="-gneE20_0" departPos="5.10" departSpeed="0.00" departDelay="0.00" arrival="192.00" arrivalLane="gneE28_0" arrivalPos="71.89" arrivalSpeed="8.31" duration="179.00" routeLength="482.30" waitingTime="104.00" waitingCount="2" stopTime="0.00" timeLoss="139.50" rerouteNo="0" devices="tripinfo_26 fcd_26" vType="DEFAULT_VEHTYPE" speedFactor="0.93" vaporized=""/>
    <tripinfo id="53" depart="30.00" departLane="-gneE13_0" departPos="5.10" departSpeed="0.00" departDelay="3.50" arrival="192.00" arrivalLane="-gneE9_0" arrivalPos="168.72" arrivalSpeed="8.30" duration="162.00" routeLength="592.62" waitingTime="87.00" waitingCount="3" stopTime="0.00" timeLoss="114.67" rerouteNo="0" devices="tripinfo_53 fcd_53" vType="DEFAULT_VEHTYPE" speedFactor="0.97" vaporized=""/>
    <tripinfo id="32" depart="16.00" departLane="gneE23_0" departPos="5.10" departSpeed="0.00" departDelay="0.00" arrival="193.00" arrivalLane="gneE22_0" arrivalPos="41.14" arrivalSpeed="12.82" duration="177.00" routeLength="702.51" waitingTime="95.00" waitingCount="4" stopTime="0.00" timeLoss="120.59" rerouteNo="0" devices="tripinfo_32 fcd_32" vType="DEFAULT_VEHTYPE" speedFactor="0.97" vaporized=""/>
    <tripinfo id="45" depart="27.00" departLane="-gneE13_0" departPos="5.10" departSpeed="0.00" departDelay="4.50" arrival="194.00" arrivalLane="gneE14_0" arrivalPos="20.71" arrivalSpeed="11.33" duration="167.00" routeLength="450.99" waitingTime="98.00" waitingCount="4" stopTime="0.00" timeLoss="125.89" rerouteNo="0" devices="tripinfo_45 fcd_45" vType="DEFAULT_VEHTYPE" speedFactor="0.85" vaporized=""/>
    <tripinfo id="64" depart="36.00" departLane="gneE25_0" departPos="5.10" departSpeed="0.00" departDelay="4.00" arrival="194.00" arrivalLane="gneE23_0" arrivalPos="44.83" arrivalSpeed="6.70" duration="158.00" routeLength="605.27" waitingTime="64.00" waitingCount="3" stopTime="0.00" timeLoss="110.70" rerouteNo="0" devices="tripinfo_64 fcd_64" vType="DEFAULT_VEHTYPE" speedFactor="0.97" vaporized=""/>
    <tripinfo id="86" depart="43.00" departLane="-gneE28_0" departPos="5.10" departSpeed="0.00" departDelay="0.00" arrival="195.00" arrivalLane="gneE22_0" arrivalPos="41.14" arrivalSpeed="13.84" duration="152.00" routeLength="563.92" waitingTime="81.00" waitingCount="3" stopTime="0.00" timeLoss="110.55" rerouteNo="0" devices="tripinfo_86 fcd_86" vType="DEFAULT_VEHTYPE" speedFactor="1.06" vaporized=""/>
    <tripinfo id="24" depart="12.00" departLane="gneE13_0" departPos="5.10" departSpeed="0.00" departDelay="0.00" arrival="207.00" arrivalLane="-gneE25_0" arrivalPos="70.98" arrivalSpeed="5.53" duration="195.00" routeLength="643.18" waitingTime="90.00" waitingCount="5" stopTime="0.00" timeLoss="143.42" rerouteNo="0" devices="tripinfo_24 fcd_24" vType="DEFAULT_VEHTYPE" speedFactor="0.95" vaporized=""/>