<?xml version="1.0" encoding="UTF-8"?>

<!-- generated on 2023-07-28 16:06:06 by Eclipse SUMO GUI Version 1.18.0
<configuration xmlns:xsi="http://www.w3.org/2001/XMLSchema-instance" xsi:noNamespaceSchemaLocation="http://sumo.dlr.de/xsd/sumoConfiguration.xsd">

    <input>
        <net-file value="./configurations/simple_grid1.net.xml"/>
        <route-files value="./configurations/str_sumo.rou.xml"/>
    </input>

    <output>
        <netstate-dump value="./configurations/test_dump.xml"/>
        <fcd-output value="./configurations/testTrace.xml"/>
        <tripinfo-output value="./configurations/trips.trips.xml"/>
    </output>

    <time>
        <begin value="0"/>
        <end value="200000"/>
    </time>

    <traci_server>
        <remote-port value="49222"/>
    </traci_server>

    <gui_only>
        <quit-on-end value="true"/>
    </gui_only>

</configuration>
-->

<tripinfos xmlns:xsi="http://www.w3.org/2001/XMLSchema-instance" xsi:noNamespaceSchemaLocation="http://sumo.dlr.de/xsd/tripinfo_file.xsd">
    <tripinfo id="2" depart="1.00" departLane="gneE18_0" departPos="5.10" departSpeed="0.00" departDelay="0.00" arrival="7.00" arrivalLane="gneE18_0" arrivalPos="45.54" arrivalSpeed="12.89" duration="6.00" routeLength="40.44" waitingTime="0.00" waitingCount="0" stopTime="0.00" timeLoss="2.96" rerouteNo="0" devices="tripinfo_2 fcd_2" vType="DEFAULT_VEHTYPE" speedFactor="1.08" vaporized=""/>
    <tripinfo id="13" depart="7.00" departLane="-gneE12_0" departPos="5.10" departSpeed="0.00" departDelay="0.50" arrival="12.00" arrivalLane="-gneE12_0" arrivalPos="27.94" arrivalSpeed="9.98" duration="5.00" routeLength="22.84" waitingTime="0.00" waitingCount="0" stopTime="0.00" timeLoss="2.55" rerouteNo="0" devices="tripinfo_13 fcd_13" vType="DEFAULT_VEHTYPE" speedFactor="0.93" vaporized=""/>
    <tripinfo id="14" depart="7.00" departLane="gneE23_0" departPos="5.10" departSpeed="0.00" departDelay="0.00" arrival="16.00" arrivalLane="gneE14_0" arrivalPos="20.71" arrivalSpeed="12.06" duration="9.00" routeLength="74.77" waitingTime="0.00" waitingCount="0" stopTime="0.00" timeLoss="2.32" rerouteNo="0" devices="tripinfo_14 fcd_14" vType="DEFAULT_VEHTYPE" speedFactor="0.88" vaporized=""/>
    <tripinfo id="10" depart="8.00" departLane="gneE22_0" departPos="5.10" departSpeed="0.00" departDelay="3.00" arrival="28.00" arrivalLane="gneE18_0" arrivalPos="45.54" arrivalSpeed="13.97" duration="20.00" routeLength="224.13" waitingTime="0.00" waitingCount="0" stopTime="0.00" timeLoss="3.81" rerouteNo="0" devices="tripinfo_10 fcd_10" vType="DEFAULT_VEHTYPE" speedFactor="1.03" vaporized=""/>
    <tripinfo id="1" depart="1.00" departLane="-gneE20_0" departPos="5.10" departSpeed="0.00" departDelay="0.50" arrival="29.00" arrivalLane="-gneE18_0" arrivalPos="45.54" arrivalSpeed="12.71" duration="28.00" routeLength="295.55" waitingTime="0.00" waitingCount="0" stopTime="0.00" timeLoss="6.85" rerouteNo="0" devices="tripinfo_1 fcd_1" vType="DEFAULT_VEHTYPE" speedFactor="1.01" vaporized=""/>
    <tripinfo id="39" depart="20.00" departLane="-gneE19_0" departPos="5.10" departSpeed="0.00" departDelay="0.50" arrival="32.00" arrivalLane="-gneE19_0" arrivalPos="130.57" arrivalSpeed="13.41" duration="12.00" routeLength="125.47" waitingTime="0.00" waitingCount="0" stopTime="0.00" timeLoss="3.24" rerouteNo="0" devices="tripinfo_39 fcd_39" vType="DEFAULT_VEHTYPE" speedFactor="1.04" vaporized=""/>
</tripinfos>
